 Gaussian 16, Revision A.03,
 Gaussian 16:  ES64L-G16RevA.03 25-Dec-2016

 -----------------------
 #p am1 opt freq=noraman
 -----------------------

 --------
 MeCl pre
 --------
 Symbolic Z-matrix:
 Charge = -1 Multiplicity = 1

 SCF Done:  E(RAM1) = -0.898137278343E-01 A.U. after   11 cycles
 SCF Done:  E(RAM1) = -0.100150854257     A.U. after    9 cycles
 SCF Done:  E(RAM1) = -0.102330051605     A.U. after    9 cycles
 SCF Done:  E(RAM1) = -0.103697993070     A.U. after    8 cycles
 SCF Done:  E(RAM1) = -0.103858452104     A.U. after    9 cycles
 SCF Done:  E(RAM1) = -0.103882306254     A.U. after    8 cycles
 SCF Done:  E(RAM1) = -0.103891332910     A.U. after    8 cycles
 SCF Done:  E(RAM1) = -0.103897255802     A.U. after    8 cycles
 SCF Done:  E(RAM1) = -0.103898708342     A.U. after    8 cycles
 Optimization completed.
    -- Stationary point found.
 Normal termination of Gaussian 16 at Mon Nov  6 15:52:19 2017.

 -------------------------------------------------------------
 #P Geom=AllCheck Guess=TCheck SCRF=Check GenChk RAM1/ZDO Freq
 -------------------------------------------------------------

 Structure from the checkpoint file:  "/scratch/dhuang9_MeCl_precomplex/Gau-53863.chk"
 --------
 MeCl pre
 --------
 Charge = -1 Multiplicity = 1

                         Standard orientation:
 ---------------------------------------------------------------------
 Center     Atomic      Atomic             Coordinates (Angstroms)
 Number     Number       Type             X           Y           Z
 ---------------------------------------------------------------------
      1          6           0       -0.451118   -0.003826   -0.041631
      2          1           0       -0.163029   -0.886688    0.565292
      3          1           0       -0.169243    0.942288    0.464541
      4          1           0       -0.019824   -0.058586   -1.062308
      5         17           0        2.407579    0.020421    0.222209
      6         17           0       -2.227650   -0.018895   -0.205606
 ---------------------------------------------------------------------

 SCF Done:  E(RAM1) = -0.103898708342     A.U. after    2 cycles

 The electronic state is 1-A.
 Alpha  occ. eigenvalues --   -1.21841  -0.94244  -0.89736  -0.39835  -0.39835
 Alpha  occ. eigenvalues --   -0.39058  -0.28075  -0.28075  -0.12962  -0.12962
 Alpha  occ. eigenvalues --   -0.12712
 Alpha virt. eigenvalues --    0.19909   0.30807   0.30807   0.32611

 Mulliken charges:
               1
     1  C   -0.101875
     2  H    0.116801
     3  H    0.116801
     4  H    0.116802
     5  Cl  -0.979512
     6  Cl  -0.269016
 Sum of Mulliken charges =  -1.00000

 Dipole moment (field-independent basis, Debye):
    X=             -8.4273    Y=             -0.0715    Z=             -0.7778  Tot=              8.4634
 N-N= 6.448396002175D+01 E-N=-6.153182506075D+01  KE=-5.725719742046D+01
  Exact polarizability:  34.478   0.221   8.392   2.408   0.020   8.612
 Approx polarizability:  21.778   0.145   4.684   1.578   0.013   4.828
 Leave Link  601 at Mon Nov  6 15:52:21 2017, MaxMem=   134217728 cpu:               0.1 elap:               0.1
 (Enter /n/sw/g16_nehalem/g16/l701.exe)
 ... and contract with generalized density number  0.
 Compute integral second derivatives.
 Leave Link  701 at Mon Nov  6 15:52:21 2017, MaxMem=   134217728 cpu:               0.1 elap:               0.1
 (Enter /n/sw/g16_nehalem/g16/l702.exe)
 L702 exits ... SP integral derivatives will be done elsewhere.

                      1                      2                      3
                      A                      A                      A
 Frequencies --     83.4486                83.4487               130.8933
 Red. masses --      3.2304                 3.2304                18.3256
 Frc consts  --      0.0133                 0.0133                 0.1850
 IR Inten    --      8.9962                 8.9962                47.0450

                      4                      5                      6
                      A                      A                      A
 Frequencies --    714.6465               941.2942               941.2955
 Red. masses --      9.3087                 1.1483                 1.1483
 Frc consts  --      2.8011                 0.5995                 0.5995
 IR Inten    --    236.0650                 6.3395                 6.3394

                      7                      8                      9
                      A                      A                      A
 Frequencies --   1302.0069              1361.9077              1361.9078
 Red. masses --      1.0953                 1.0835                 1.0835
 Frc consts  --      1.0940                 1.1841                 1.1841
 IR Inten    --     11.6616                12.4545                12.4547

                     10                     11                     12
                      A                      A                      A
 Frequencies --   3092.5745              3092.5750              3163.0605
 Red. masses --      1.0989                 1.0989                 1.0211
 Frc consts  --      6.1923                 6.1923                 6.0189
 IR Inten    --     12.9373                12.9367                 2.4668

 - Thermochemistry -
 -------------------
 Temperature   298.150 Kelvin.  Pressure   1.00000 Atm.
 Atom     1 has atomic number  6 and mass  12.00000

 Molecular mass:    84.96118 amu.
 Principal axes and moments of inertia in atomic units:
                           1         2         3
     Eigenvalues --    12.075911370.037541370.03754
           X            0.99573   0.00000  -0.09229
           Y            0.00845   0.99580   0.09114
           Z            0.09190  -0.09154   0.99155
 This molecule is an asymmetric top.
 Rotational symmetry number  1.
 Rotational temperatures (Kelvin)      7.17245     0.06322     0.06322
 Rotational constants (GHZ):         149.44967     1.31729     1.31729
 Zero-point vibrational energy      97310.6 (Joules/Mol)
                                   23.25779 (Kcal/Mol)
 Warning -- explicit consideration of   3 degrees of freedom as
           vibrations may cause significant error
 Vibrational temperatures:    120.06   120.06   188.33  1028.22  1354.31
          (Kelvin)           1354.31  1873.30  1959.48  1959.48  4449.52
                             4449.53  4550.94

 Zero-point correction=                           0.037064 (Hartree/Particle)
 Thermal correction to Energy=                    0.042335
 Thermal correction to Enthalpy=                  0.043279
 Thermal correction to Gibbs Free Energy=         0.007640
 Sum of electronic and zero-point Energies=             -0.066835
 Sum of electronic and thermal Energies=                -0.061564
 Sum of electronic and thermal Enthalpies=              -0.060620
 Sum of electronic and thermal Free Energies=           -0.096258

                     E (Thermal)             CV                S
                      KCal/Mol        Cal/Mol-Kelvin    Cal/Mol-Kelvin
 Total                   26.565             13.887             75.007
 Electronic               0.000              0.000              0.000
 Translational            0.889              2.981             39.232
 Rotational               0.889              2.981             24.631
 Vibrational             24.788              7.925             11.144
 Vibration     1          0.600              1.961              3.808
 Vibration     2          0.600              1.961              3.808
 Vibration     3          0.612              1.922              2.933

                           ! Non-Optimized Parameters !
 Normal termination of Gaussian 16 at Mon Nov  6 15:52:22 2017.
