 Gaussian 16, Revision A.03,
 Gaussian 16:  ES64L-G16RevA.03 25-Dec-2016

 -----------------------
 #p am1 opt freq=noraman
 -----------------------

 ---------
 MeCl post
 ---------
 Symbolic Z-matrix:
 Charge = -1 Multiplicity = 1

 SCF Done:  E(RAM1) = -0.898922495562E-01 A.U. after   11 cycles
 SCF Done:  E(RAM1) = -0.100176659581     A.U. after   10 cycles
 SCF Done:  E(RAM1) = -0.102342285429     A.U. after    9 cycles
 SCF Done:  E(RAM1) = -0.103698539736     A.U. after    9 cycles
 SCF Done:  E(RAM1) = -0.103858445373     A.U. after    9 cycles
 SCF Done:  E(RAM1) = -0.103882303245     A.U. after    8 cycles
 SCF Done:  E(RAM1) = -0.103891344002     A.U. after    7 cycles
 SCF Done:  E(RAM1) = -0.103897272683     A.U. after    7 cycles
 SCF Done:  E(RAM1) = -0.103898711849     A.U. after    7 cycles
 Optimization completed.
    -- Stationary point found.
 Normal termination of Gaussian 16 at Mon Nov  6 15:52:19 2017.

 -------------------------------------------------------------
 #P Geom=AllCheck Guess=TCheck SCRF=Check GenChk RAM1/ZDO Freq
 -------------------------------------------------------------

 Structure from the checkpoint file:  "/scratch/dhuang9_MeCl_postcomplex/Gau-53864.chk"
 ---------
 MeCl post
 ---------
 Charge = -1 Multiplicity = 1

                         Standard orientation:
 ---------------------------------------------------------------------
 Center     Atomic      Atomic             Coordinates (Angstroms)
 Number     Number       Type             X           Y           Z
 ---------------------------------------------------------------------
      1          6           0        0.001268    0.023928   -0.452422
      2          1           0       -0.914287   -0.523844   -0.148288
      3          1           0        0.917458   -0.519774   -0.142940
      4          1           0       -0.002180    1.062325   -0.061891
      5         17           0        0.006261    0.118103   -2.234078
      6         17           0       -0.006767   -0.127649    2.414528
 ---------------------------------------------------------------------

 SCF Done:  E(RAM1) = -0.103898711849     A.U. after    2 cycles

 The electronic state is 1-A.
 Alpha  occ. eigenvalues --   -1.21841  -0.94244  -0.89736  -0.39835  -0.39835
 Alpha  occ. eigenvalues --   -0.39058  -0.28075  -0.28075  -0.12962  -0.12962
 Alpha  occ. eigenvalues --   -0.12712
 Alpha virt. eigenvalues --    0.19909   0.30807   0.30807   0.32611

 Mulliken charges:
               1
     1  C   -0.101875
     2  H    0.116802
     3  H    0.116802
     4  H    0.116800
     5  Cl  -0.269016
     6  Cl  -0.979513
 Sum of Mulliken charges =  -1.00000

 Dipole moment (field-independent basis, Debye):
    X=              0.0237    Y=              0.4468    Z=             -8.4516  Tot=              8.4634
 N-N= 6.448387972259D+01 E-N=-6.153165788594D+01  KE=-5.725719781659D+01
  Exact polarizability:   8.390   0.004   8.463  -0.074  -1.387  34.628
 Approx polarizability:   4.683   0.003   4.731  -0.048  -0.909  21.877
 Leave Link  601 at Mon Nov  6 15:52:21 2017, MaxMem=   134217728 cpu:               0.1 elap:               0.1
 (Enter /n/sw/g16_nehalem/g16/l701.exe)
 ... and contract with generalized density number  0.
 Compute integral second derivatives.
 Leave Link  701 at Mon Nov  6 15:52:21 2017, MaxMem=   134217728 cpu:               0.1 elap:               0.1
 (Enter /n/sw/g16_nehalem/g16/l702.exe)
 L702 exits ... SP integral derivatives will be done elsewhere.

                      1                      2                      3
                      A                      A                      A
 Frequencies --     83.4517                83.4519               130.8884
 Red. masses --      3.2304                 3.2304                18.3254
 Frc consts  --      0.0133                 0.0133                 0.1850
 IR Inten    --      8.9962                 8.9962                47.0442

                      4                      5                      6
                      A                      A                      A
 Frequencies --    714.6399               941.2889               941.2909
 Red. masses --      9.3087                 1.1483                 1.1483
 Frc consts  --      2.8010                 0.5995                 0.5995
 IR Inten    --    236.0601                 6.3395                 6.3393

                      7                      8                      9
                      A                      A                      A
 Frequencies --   1302.0054              1361.9066              1361.9069
 Red. masses --      1.0953                 1.0835                 1.0835
 Frc consts  --      1.0940                 1.1841                 1.1841
 IR Inten    --     11.6616                12.4544                12.4549

                     10                     11                     12
                      A                      A                      A
 Frequencies --   3092.5797              3092.5808              3163.0668
 Red. masses --      1.0989                 1.0989                 1.0211
 Frc consts  --      6.1923                 6.1923                 6.0189
 IR Inten    --     12.9377                12.9367                 2.4670

 - Thermochemistry -
 -------------------
 Temperature   298.150 Kelvin.  Pressure   1.00000 Atm.
 Atom     1 has atomic number  6 and mass  12.00000

 Molecular mass:    84.96118 amu.
 Principal axes and moments of inertia in atomic units:
                           1         2         3
     Eigenvalues --    12.075881370.049701370.04970
           X           -0.00280   0.00003   1.00000
           Y           -0.05279   0.99861  -0.00017
           Z            0.99860   0.05279   0.00279
 This molecule is an asymmetric top.
 Rotational symmetry number  1.
 Rotational temperatures (Kelvin)      7.17247     0.06322     0.06322
 Rotational constants (GHZ):         149.45003     1.31728     1.31728
 Zero-point vibrational energy      97310.6 (Joules/Mol)
                                   23.25779 (Kcal/Mol)
 Warning -- explicit consideration of   3 degrees of freedom as
           vibrations may cause significant error
 Vibrational temperatures:    120.07   120.07   188.32  1028.21  1354.30
          (Kelvin)           1354.31  1873.30  1959.48  1959.48  4449.53
                             4449.53  4550.95

 Zero-point correction=                           0.037064 (Hartree/Particle)
 Thermal correction to Energy=                    0.042335
 Thermal correction to Enthalpy=                  0.043279
 Thermal correction to Gibbs Free Energy=         0.007640
 Sum of electronic and zero-point Energies=             -0.066835
 Sum of electronic and thermal Energies=                -0.061564
 Sum of electronic and thermal Enthalpies=              -0.060620
 Sum of electronic and thermal Free Energies=           -0.096258

                     E (Thermal)             CV                S
                      KCal/Mol        Cal/Mol-Kelvin    Cal/Mol-Kelvin
 Total                   26.565             13.887             75.007
 Electronic               0.000              0.000              0.000
 Translational            0.889              2.981             39.232
 Rotational               0.889              2.981             24.631
 Vibrational             24.788              7.925             11.144
 Vibration     1          0.600              1.961              3.808
 Vibration     2          0.600              1.961              3.808
 Vibration     3          0.612              1.922              2.933

                           ! Non-Optimized Parameters !
 Normal termination of Gaussian 16 at Mon Nov  6 15:52:22 2017.
