 Gaussian 16, Revision A.03,
 Gaussian 16:  ES64L-G16RevA.03 25-Dec-2016

 -----------------------
 #p opt=modredundant am1
 -----------------------

 -----------------
 MeCl + Cl- frozen
 -----------------
 Symbolic Z-matrix:
 Charge = -1 Multiplicity = 1

 SCF Done:  E(RAM1) = -0.100432081508     A.U. after   12 cycles
 SCF Done:  E(RAM1) = -0.100811065088     A.U. after   11 cycles
 SCF Done:  E(RAM1) = -0.101933602766     A.U. after   11 cycles
 SCF Done:  E(RAM1) = -0.102295605991     A.U. after   11 cycles
 SCF Done:  E(RAM1) = -0.102985887275     A.U. after   11 cycles
 SCF Done:  E(RAM1) = -0.103121888898     A.U. after   10 cycles
 SCF Done:  E(RAM1) = -0.103212840609     A.U. after   10 cycles
 SCF Done:  E(RAM1) = -0.103234934435     A.U. after    9 cycles
 SCF Done:  E(RAM1) = -0.103244045852     A.U. after   10 cycles
 SCF Done:  E(RAM1) = -0.103246727972     A.U. after    9 cycles
 SCF Done:  E(RAM1) = -0.103255343425     A.U. after   10 cycles
 SCF Done:  E(RAM1) = -0.103257259475     A.U. after    9 cycles
 SCF Done:  E(RAM1) = -0.103257292031     A.U. after    8 cycles
 Optimization completed.
    -- Stationary point found.

                         Standard orientation:
 ---------------------------------------------------------------------
 Center     Atomic      Atomic             Coordinates (Angstroms)
 Number     Number       Type             X           Y           Z
 ---------------------------------------------------------------------
      1          6           0        0.489739   -0.000100    0.000662
      2          1           0        0.134634   -0.704228    0.784094
      3          1           0        0.134182    1.030228    0.218947
      4          1           0        0.133559   -0.326455   -1.000491
      5         17           0        2.231234    0.000038   -0.000241
      6         17           0       -2.427753    0.000024   -0.000143
 ---------------------------------------------------------------------

 The electronic state is 1-A.
 Alpha  occ. eigenvalues --   -1.23108  -0.93920  -0.90010  -0.40299  -0.40297
 Alpha  occ. eigenvalues --   -0.39970  -0.27947  -0.27946  -0.12693  -0.12693
 Alpha  occ. eigenvalues --   -0.12483
 Alpha virt. eigenvalues --    0.20378   0.30715   0.30717   0.32868

 Mulliken charges:
               1
     1  C   -0.129911
     2  H    0.116701
     3  H    0.116781
     4  H    0.116873
     5  Cl  -0.236800
     6  Cl  -0.983643
 Sum of Mulliken charges =  -1.00000

 Dipole moment (field-independent basis, Debye):
    X=              8.8302    Y=             -0.0003    Z=              0.0014  Tot=              8.8302
 N-N= 6.456087465185D+01 E-N=-6.166719138033D+01  KE=-5.723376988429D+01
 Leave Link  601 at Mon Nov  6 15:08:21 2017, MaxMem=   134217728 cpu:               0.1 elap:               0.1
 (Enter /n/sw/g16_nehalem/g16/l9999.exe)
 1\1\GINC-HOLYBIGMEM08\FOpt\RAM1\ZDO\C1H3Cl2(1-)\ROOT\06-Nov-2017\0\\#p
  opt=modredundant am1\\MeCl + Cl- frozen\\-1,1\C,0.0519656552,-0.02920
 60775,-0.4558311776\H,0.0244292181,1.0398452669,-0.7591985388\H,0.9299
 527602,-0.5364154979,-0.9113781559\H,-0.8878266018,-0.5397893697,-0.75
 87745617\Cl,0.1977320781,-0.1127913752,1.2775395173\Cl,-0.1935184697,0
 .1088611634,-3.3596959933\\Version=ES64L-G16RevA.03\State=1-A\HF=-0.10
 32573\RMSD=5.808e-09\RMSF=5.478e-03\Dipole=0.2920853,-0.1647244,3.4578

 Normal termination of Gaussian 16 at Mon Nov  6 15:08:21 2017.
