 Gaussian 16, Revision A.03,
 Gaussian 16:  ES64L-G16RevA.03 25-Dec-2016

 -----------------------
 #p am1 opt freq=noraman
 -----------------------

 -------------
 isolated MeCl
 -------------
 Symbolic Z-matrix:
 Charge =  0 Multiplicity = 1

 SCF Done:  E(RAM1) = -0.260675605013E-01 A.U. after   10 cycles
 SCF Done:  E(RAM1) = -0.302042953727E-01 A.U. after    9 cycles
 SCF Done:  E(RAM1) = -0.302426312317E-01 A.U. after    8 cycles
 SCF Done:  E(RAM1) = -0.302437905049E-01 A.U. after    7 cycles
 Optimization completed.
    -- Stationary point found.
 Normal termination of Gaussian 16 at Mon Nov  6 14:55:37 2017.

 -------------------------------------------------------------
 #P Geom=AllCheck Guess=TCheck SCRF=Check GenChk RAM1/ZDO Freq
 -------------------------------------------------------------

 Structure from the checkpoint file:  "/scratch/dhuang9_MeCl_isolated/Gau-46408.chk"
 -------------
 isolated MeCl
 -------------
 Charge =  0 Multiplicity = 1

                         Standard orientation:
 ---------------------------------------------------------------------
 Center     Atomic      Atomic             Coordinates (Angstroms)
 Number     Number       Type             X           Y           Z
 ---------------------------------------------------------------------
      1          6           0        0.000000    0.000000   -1.098518
      2          1           0        0.000000    1.055486   -1.446506
      3          1           0        0.914077   -0.527743   -1.446506
      4          1           0       -0.914077   -0.527743   -1.446506
      5         17           0        0.000000    0.000000    0.642978
 ---------------------------------------------------------------------

 SCF Done:  E(RAM1) = -0.302437905049E-01 A.U. after    2 cycles

 The electronic state is 1-A1.
 Alpha  occ. eigenvalues --   -1.36952  -1.06016  -0.55678  -0.55678  -0.54625
 Alpha  occ. eigenvalues --   -0.41669  -0.41669
 Alpha virt. eigenvalues --    0.05867   0.14208   0.14208   0.15418

 Mulliken charges:
               1
     1  C   -0.177359
     2  H    0.098058
     3  H    0.098058
     4  H    0.098058
     5  Cl  -0.116815
 Sum of Mulliken charges =   0.00000

 Dipole moment (field-independent basis, Debye):
    X=              0.0000    Y=              0.0000    Z=             -1.5142  Tot=              1.5142
 N-N= 3.686322653509D+01 E-N=-3.200199624720D+01  KE=-3.193921537670D+01
 Symmetry A'   KE=-2.416572419014D+01
 Symmetry A"   KE=-7.773491186559D+00
  Exact polarizability:   8.813   0.000   8.813   0.000   0.000  22.475
 Approx polarizability:   4.901   0.000   4.901   0.000   0.000  14.560
 Leave Link  601 at Mon Nov  6 14:55:39 2017, MaxMem=   134217728 cpu:               0.1 elap:               0.1
 (Enter /n/sw/g16_nehalem/g16/l701.exe)
 ... and contract with generalized density number  0.
 Compute integral second derivatives.
 Leave Link  701 at Mon Nov  6 14:55:40 2017, MaxMem=   134217728 cpu:               0.1 elap:               0.1

                      1                      2                      3
                     A1                      E                      E
 Frequencies --    836.6104               983.8864               983.8864
 Red. masses --      7.1712                 1.1590                 1.1590
 Frc consts  --      2.9572                 0.6611                 0.6611
 IR Inten    --     55.0511                 0.0661                 0.0661

                      4                      5                      6
                     A1                      E                      E
 Frequencies --   1345.1869              1367.8845              1367.8845
 Red. masses --      1.1373                 1.0814                 1.0814
 Frc consts  --      1.2126                 1.1922                 1.1922
 IR Inten    --     15.2396                 3.1374                 3.1374

                      7                      8                      9
                      E                      E                     A1
 Frequencies --   3076.5136              3076.5136              3150.7928
 Red. masses --      1.0972                 1.0972                 1.0228
 Frc consts  --      6.1184                 6.1184                 5.9826
 IR Inten    --      6.3695                 6.3695                 1.1432

 - Thermochemistry -
 -------------------
 Temperature   298.150 Kelvin.  Pressure   1.00000 Atm.
 Atom     1 has atomic number  6 and mass  12.00000

 Molecular mass:    49.99233 amu.
 Principal axes and moments of inertia in atomic units:
                           1         2         3
     Eigenvalues --    12.02843 130.20913 130.20913
           X            0.00000   0.95027   0.31144
           Y            0.00000  -0.31144   0.95027
           Z            1.00000   0.00000   0.00000
 This molecule is a prolate symmetric top.
 Rotational symmetry number  3.
 Rotational temperatures (Kelvin)      7.20077     0.66519     0.66519
 Rotational constants (GHZ):         150.03965    13.86033    13.86033
 Zero-point vibrational energy      96832.7 (Joules/Mol)
                                   23.14356 (Kcal/Mol)
 Vibrational temperatures:   1203.70  1415.59  1415.59  1935.42  1968.08
          (Kelvin)           1968.08  4426.42  4426.42  4533.29

 Zero-point correction=                           0.036882 (Hartree/Particle)
 Thermal correction to Energy=                    0.039887
 Thermal correction to Enthalpy=                  0.040832
 Thermal correction to Gibbs Free Energy=         0.014290
 Sum of electronic and zero-point Energies=              0.006638
 Sum of electronic and thermal Energies=                 0.009644
 Sum of electronic and thermal Enthalpies=               0.010588
 Sum of electronic and thermal Free Energies=           -0.015954

                     E (Thermal)             CV                S
                      KCal/Mol        Cal/Mol-Kelvin    Cal/Mol-Kelvin
 Total                   25.030              7.708             55.861
 Electronic               0.000              0.000              0.000
 Translational            0.889              2.981             37.651
 Rotational               0.889              2.981             17.767
 Vibrational             23.252              1.746              0.443

 Optimization completed.
    -- Stationary point found.
 Normal termination of Gaussian 16 at Mon Nov  6 14:55:40 2017.
