 Gaussian 16, Revision A.03,
 Gaussian 16:  ES64L-G16RevA.03 25-Dec-2016

 -----------------------------------------------
 #p opt=(ts,noeigentest,calcfc) freq=noraman am1
 -----------------------------------------------

 -------
 MeCl ts
 -------
 Symbolic Z-matrix:
 Charge = -1 Multiplicity = 1

 SCF Done:  E(RAM1) = -0.895152582506E-01 A.U. after   12 cycles
 SCF Done:  E(RAM1) = -0.894694742104E-01 A.U. after   10 cycles
 Optimization completed.
    -- Stationary point found.
 Normal termination of Gaussian 16 at Mon Nov  6 15:37:53 2017.

 -------------------------------------------------------------
 #P Geom=AllCheck Guess=TCheck SCRF=Check GenChk RAM1/ZDO Freq
 -------------------------------------------------------------

 Structure from the checkpoint file:  "/scratch/dhuang9_MeCl_ts/Gau-19751.chk"
 -------
 MeCl ts
 -------
 Charge = -1 Multiplicity = 1

                         Standard orientation:
 ---------------------------------------------------------------------
 Center     Atomic      Atomic             Coordinates (Angstroms)
 Number     Number       Type             X           Y           Z
 ---------------------------------------------------------------------
      1          6           0       -0.000123    0.000009    0.000000
      2          1           0        0.000237   -0.600227   -0.918425
      3          1           0        0.000238   -0.495258    0.979029
      4          1           0        0.000267    1.095506   -0.060603
      5         17           0        2.154119   -0.000003    0.000000
      6         17           0       -2.154119   -0.000002    0.000000
 ---------------------------------------------------------------------

 SCF Done:  E(RAM1) = -0.894694742104E-01 A.U. after    2 cycles

 The electronic state is 1-A.
 Alpha  occ. eigenvalues --   -1.06464  -1.05471  -0.87412  -0.37620  -0.37620
 Alpha  occ. eigenvalues --   -0.30672  -0.21546  -0.21546  -0.20322  -0.20322
 Alpha  occ. eigenvalues --   -0.16208
 Alpha virt. eigenvalues --    0.20821   0.31008   0.32681   0.32681

 Mulliken charges:
               1
     1  C    0.104932
     2  H    0.105651
     3  H    0.105651
     4  H    0.105651
     5  Cl  -0.711135
     6  Cl  -0.710751
 Sum of Mulliken charges =  -1.00000

 Dipole moment (field-independent basis, Debye):
    X=             -0.0035    Y=              0.0000    Z=              0.0000  Tot=              0.0035
 N-N= 6.559620140570D+01 E-N=-6.387256967760D+01  KE=-5.739473983937D+01
  Exact polarizability:  75.887   0.000   8.526   0.000   0.000   8.526
 Approx polarizability:  51.234   0.000   4.685   0.000   0.000   4.685
 Leave Link  601 at Mon Nov  6 15:37:55 2017, MaxMem=   134217728 cpu:               0.1 elap:               0.1
 (Enter /n/sw/g16_nehalem/g16/l701.exe)
 ... and contract with generalized density number  0.
 Compute integral second derivatives.
 Leave Link  701 at Mon Nov  6 15:37:55 2017, MaxMem=   134217728 cpu:               0.1 elap:               0.1
 (Enter /n/sw/g16_nehalem/g16/l702.exe)
 L702 exits ... SP integral derivatives will be done elsewhere.

 ******    1 imaginary frequencies (negative Signs) ******

                      1                      2                      3
                      A                      A                      A
 Frequencies --   -465.5186               217.8445               217.8450
 Red. masses --     12.8507                 4.2249                 4.2249
 Frc consts  --      1.6408                 0.1181                 0.1181
 IR Inten    --   1965.4150                23.6873                23.6873

                      4                      5                      6
                      A                      A                      A
 Frequencies --    265.5968               999.3430               999.3432
 Red. masses --     34.9285                 1.0133                 1.0133
 Frc consts  --      1.4517                 0.5962                 0.5962
 IR Inten    --      0.0000                 0.0000                 0.0000

                      7                      8                      9
                      A                      A                      A
 Frequencies --   1135.3627              1324.3723              1324.3751
 Red. masses --      1.0463                 1.1243                 1.1243
 Frc consts  --      0.7947                 1.1618                 1.1618
 IR Inten    --    120.6017                 0.0125                 0.0125

                     10                     11                     12
                      A                      A                      A
 Frequencies --   3172.8711              3180.1894              3180.1933
 Red. masses --      1.0079                 1.1116                 1.1116
 Frc consts  --      5.9780                 6.6237                 6.6237
 IR Inten    --      0.0000                 4.8694                 4.8694

 - Thermochemistry -
 -------------------
 Temperature   298.150 Kelvin.  Pressure   1.00000 Atm.
 Atom     1 has atomic number  6 and mass  12.00000

 Molecular mass:    84.96118 amu.
 Principal axes and moments of inertia in atomic units:
                           1         2         3
     Eigenvalues --    12.997321165.405431165.40548
           X            1.00000   0.00000   0.00000
           Y            0.00000   1.00000   0.00000
           Z            0.00000   0.00000   1.00000
 This molecule is an asymmetric top.
 Rotational symmetry number  1.
 Rotational temperatures (Kelvin)      6.66398     0.07432     0.07432
 Rotational constants (GHZ):         138.85489     1.54860     1.54860
    1 imaginary frequencies ignored.
 Zero-point vibrational energy      95804.9 (Joules/Mol)
                                   22.89793 (Kcal/Mol)
 Warning -- explicit consideration of   3 degrees of freedom as
           vibrations may cause significant error
 Vibrational temperatures:    313.43   313.43   382.13  1437.83  1437.83
          (Kelvin)           1633.53  1905.48  1905.48  4565.05  4575.58
                             4575.59

 Zero-point correction=                           0.036490 (Hartree/Particle)
 Thermal correction to Energy=                    0.040970
 Thermal correction to Enthalpy=                  0.041914
 Thermal correction to Gibbs Free Energy=         0.008900
 Sum of electronic and zero-point Energies=             -0.052979
 Sum of electronic and thermal Energies=                -0.048499
 Sum of electronic and thermal Enthalpies=              -0.047555
 Sum of electronic and thermal Free Energies=           -0.080569

                     E (Thermal)             CV                S
                      KCal/Mol        Cal/Mol-Kelvin    Cal/Mol-Kelvin
 Total                   25.709             12.606             69.484
 Electronic               0.000              0.000              0.000
 Translational            0.889              2.981             39.232
 Rotational               0.889              2.981             24.383
 Vibrational             23.932              6.644              5.869
 Vibration     1          0.646              1.814              1.977
 Vibration     2          0.646              1.814              1.977
 Vibration     3          0.671              1.736              1.625

 Optimization completed.
    -- Stationary point found.
 Normal termination of Gaussian 16 at Mon Nov  6 15:37:55 2017.
