 Gaussian 16, Revision A.03,
 Gaussian 16:  ES64L-G16RevA.03 25-Dec-2016

 --------------------------------------------------------------
 #p am1 IRC=(forward,calcfc,maxpoints=300,stepsize=1,recalc=10)
 --------------------------------------------------------------

 -------
 MeCl ts
 -------
 Symbolic Z-matrix:
 Charge = -1 Multiplicity = 1

 SCF Done:  E(RAM1) = -0.895152582506E-01 A.U. after   12 cycles
 SCF Done:  E(RAM1) = -0.894795499365E-01 A.U. after    8 cycles
 SCF Done:  E(RAM1) = -0.895166312723E-01 A.U. after    9 cycles
 SCF Done:  E(RAM1) = -0.895641530788E-01 A.U. after    9 cycles
 SCF Done:  E(RAM1) = -0.896208645145E-01 A.U. after    9 cycles
 SCF Done:  E(RAM1) = -0.896870737348E-01 A.U. after    8 cycles
 SCF Done:  E(RAM1) = -0.897628741151E-01 A.U. after    8 cycles
 SCF Done:  E(RAM1) = -0.898482594854E-01 A.U. after    8 cycles
 SCF Done:  E(RAM1) = -0.899431605981E-01 A.U. after    8 cycles
 SCF Done:  E(RAM1) = -0.900474641439E-01 A.U. after    8 cycles
 SCF Done:  E(RAM1) = -0.103808521688     A.U. after    8 cycles
 SCF Done:  E(RAM1) = -0.103821243184     A.U. after    7 cycles
 SCF Done:  E(RAM1) = -0.103832938653     A.U. after    8 cycles
 SCF Done:  E(RAM1) = -0.103843623669     A.U. after    7 cycles
 SCF Done:  E(RAM1) = -0.103853313762     A.U. after    8 cycles
 SCF Done:  E(RAM1) = -0.103862024415     A.U. after    8 cycles
 SCF Done:  E(RAM1) = -0.103869771068     A.U. after    8 cycles
 SCF Done:  E(RAM1) = -0.103876569111     A.U. after    8 cycles
 SCF Done:  E(RAM1) = -0.103882433886     A.U. after    8 cycles
 SCF Done:  E(RAM1) = -0.103887380673     A.U. after    8 cycles

                          Input orientation:
 ---------------------------------------------------------------------
 Center     Atomic      Atomic             Coordinates (Angstroms)
 Number     Number       Type             X           Y           Z
 ---------------------------------------------------------------------
      1          6           0        0.450095    0.000068    0.000005
      2          1           0        0.116210    0.541144    0.908949
      3          1           0        0.116202    0.516717   -0.923039
      4          1           0        0.116140   -1.057617    0.014109
      5         17           0        2.235343   -0.000005   -0.000001
      6         17           0       -2.399842   -0.000026   -0.000002
 ---------------------------------------------------------------------

 Alpha  occ. eigenvalues --   -1.21703  -0.94331  -0.89643  -0.39742  -0.39742
 Alpha  occ. eigenvalues --   -0.38952  -0.27992  -0.27992  -0.13020  -0.13020
 Alpha  occ. eigenvalues --   -0.12742
 Alpha virt. eigenvalues --    0.19998   0.30905   0.30905   0.32696

 Mulliken charges:
               1
     1  C   -0.099907
     2  H    0.116712
     3  H    0.116713
     4  H    0.116725
     5  Cl  -0.272166
     6  Cl  -0.978077
 Sum of Mulliken charges =  -1.00000

 Dipole moment (field-independent basis, Debye):
    X=              8.3325    Y=              0.0002    Z=              0.0000  Tot=              8.3325
 N-N= 6.455691905873D+01 E-N=-6.168490195957D+01  KE=-5.725914195256D+01
  Exact polarizability:   0.000   0.000   0.000   0.000   0.000   0.000
 Approx polarizability:  22.318   0.000   4.681   0.000   0.000   4.681
 Leave Link  601 at Fri Nov 10 14:55:23 2017, MaxMem=   134217728 cpu:               0.0 elap:               0.0
 (Enter /n/sw/g16_nehalem/g16/l9999.exe)

 This type of calculation cannot be archived.

 A leading authority is anyone who has guessed right more than once.

 Normal termination of Gaussian 16 at Fri Nov 10 14:55:24 2017.
