 Gaussian 16, Revision A.03,
 Gaussian 16:  ES64L-G16RevA.03 25-Dec-2016

 --------------------------------------------------------------
 #p am1 IRC=(reverse,calcfc,maxpoints=300,stepsize=1,recalc=10)
 --------------------------------------------------------------

 -------
 MeCl ts
 -------
 Symbolic Z-matrix:
 Charge = -1 Multiplicity = 1

 SCF Done:  E(RAM1) = -0.895152582506E-01 A.U. after   12 cycles
 SCF Done:  E(RAM1) = -0.895612185116E-01 A.U. after    7 cycles
 SCF Done:  E(RAM1) = -0.896193496485E-01 A.U. after    9 cycles
 SCF Done:  E(RAM1) = -0.896868188871E-01 A.U. after    9 cycles
 SCF Done:  E(RAM1) = -0.897637976534E-01 A.U. after    8 cycles
 SCF Done:  E(RAM1) = -0.898501413580E-01 A.U. after    7 cycles
 SCF Done:  E(RAM1) = -0.899459241244E-01 A.U. after    8 cycles
 SCF Done:  E(RAM1) = -0.900510453004E-01 A.U. after    7 cycles
 SCF Done:  E(RAM1) = -0.901653658182E-01 A.U. after    7 cycles
 SCF Done:  E(RAM1) = -0.902887163906E-01 A.U. after    8 cycles
 SCF Done:  E(RAM1) = -0.103807571846     A.U. after    8 cycles
 SCF Done:  E(RAM1) = -0.103820367341     A.U. after    8 cycles
 SCF Done:  E(RAM1) = -0.103832135695     A.U. after    8 cycles
 SCF Done:  E(RAM1) = -0.103842892482     A.U. after    8 cycles
 SCF Done:  E(RAM1) = -0.103852653236     A.U. after    8 cycles
 SCF Done:  E(RAM1) = -0.103861433446     A.U. after    8 cycles
 SCF Done:  E(RAM1) = -0.103869248552     A.U. after    8 cycles
 SCF Done:  E(RAM1) = -0.103876113948     A.U. after    8 cycles
 SCF Done:  E(RAM1) = -0.103882044979     A.U. after    8 cycles
 SCF Done:  E(RAM1) = -0.103887056938     A.U. after    8 cycles

                          Input orientation:
 ---------------------------------------------------------------------
 Center     Atomic      Atomic             Coordinates (Angstroms)
 Number     Number       Type             X           Y           Z
 ---------------------------------------------------------------------
      1          6           0        0.449966    0.000074    0.000006
      2          1           0        0.116105    0.541154    0.908954
      3          1           0        0.116097    0.516727   -0.923043
      4          1           0        0.116029   -1.057615    0.014110
      5         17           0        2.235223   -0.000005    0.000000
      6         17           0       -2.399665   -0.000029   -0.000002
 ---------------------------------------------------------------------

 Alpha  occ. eigenvalues --   -1.21701  -0.94332  -0.89641  -0.39740  -0.39740
 Alpha  occ. eigenvalues --   -0.38950  -0.27991  -0.27991  -0.13021  -0.13021
 Alpha  occ. eigenvalues --   -0.12742
 Alpha virt. eigenvalues --    0.19999   0.30906   0.30907   0.32697

 Mulliken charges:
               1
     1  C   -0.099880
     2  H    0.116710
     3  H    0.116711
     4  H    0.116724
     5  Cl  -0.272210
     6  Cl  -0.978056
 Sum of Mulliken charges =  -1.00000

 Dipole moment (field-independent basis, Debye):
    X=              8.3310    Y=              0.0002    Z=              0.0000  Tot=              8.3310
 N-N= 6.455802148257D+01 E-N=-6.168721137372D+01  KE=-5.725916761941D+01
  Exact polarizability:   0.000   0.000   0.000   0.000   0.000   0.000
 Approx polarizability:  22.323   0.000   4.681   0.000   0.000   4.681
 Leave Link  601 at Fri Nov 10 14:55:19 2017, MaxMem=   134217728 cpu:               0.0 elap:               0.0
 (Enter /n/sw/g16_nehalem/g16/l9999.exe)

 This type of calculation cannot be archived.

 MUD THROWN IS GROUND LOST -- FROM A TEA BAG

 Normal termination of Gaussian 16 at Fri Nov 10 14:55:19 2017.
